37
id_1887_ca.log	Energy: -330144.7180287
C         -4.04287        0.43199       -0.36086
H         -4.97590        0.96263       -0.14496
H         -4.20154       -0.14069       -1.28445
C         -2.90634        1.43150       -0.57570
H         -2.80129        2.05752        0.32023
H         -3.13267        2.10175       -1.41049
C         -1.57460        0.72328       -0.84470
H         -0.77567        1.46423       -0.94912
H         -1.63399        0.15747       -1.78495
C         -1.26237       -0.24544        0.28921
H         -1.07745        0.30153        1.21841
C         -2.38626       -1.25546        0.50597
H         -2.48478       -1.87071       -0.39925
H         -2.12907       -1.92256        1.33634
C         -3.70664       -0.53197        0.77733
H         -4.50435       -1.26912        0.91026
H         -3.62427        0.02882        1.71753
N          0.00000       -1.01653       -0.00003
H          0.18341       -1.63658        0.80117
C          1.26238       -0.24543       -0.28925
H          1.07749        0.30151       -1.21847
C          1.57457        0.72331        0.84465
H          0.77564        1.46427        0.94902
H          1.63392        0.15753        1.78491
C          2.90632        1.43152        0.57568
H          2.80131        2.05751       -0.32028
H          3.13262        2.10180        1.41046
C          4.04286        0.43200        0.36092
H          4.97590        0.96264        0.14504
H          4.20149       -0.14065        1.28453
C          3.70668       -0.53199       -0.77726
H          4.50439       -1.26914       -0.91014
H          3.62436        0.02878       -1.71748
C          2.38627       -1.25546       -0.50595
H          2.48475       -1.87071        0.39928
H          2.12912       -1.92257       -1.33633
H         -0.18341       -1.63654       -0.80126
