35
id_1226_cb.log	Energy: -2060054.8014642
C         -2.00292       -1.28046        1.50317
H         -1.46798       -0.32656        1.49049
H         -1.25667       -2.07493        1.40575
H         -2.48597       -1.38391        2.47998
C         -3.02520       -1.40298        0.38251
H         -3.44724       -2.41139        0.42136
H         -2.52374       -1.31652       -0.59724
N         -4.14353       -0.45804        0.48959
C         -5.14389       -0.73743       -0.54830
H         -5.81409        0.12720       -0.60079
H         -4.67572       -0.83644       -1.54303
C         -5.97670       -1.98154       -0.26623
H         -6.46065       -1.90951        0.71239
H         -5.37960       -2.89731       -0.28819
H         -6.75680       -2.08093       -1.02711
C         -3.72129        0.94270        0.44721
H         -4.61982        1.56020        0.55126
H         -3.09294        1.15898        1.31700
C         -2.99801        1.42340       -0.80979
H         -3.00730        2.51412       -0.85927
H         -3.44540        1.02184       -1.72034
O         -1.62739        0.97178       -0.85018
C         -0.74375        1.65767       -0.12432
O         -1.01488        2.67563        0.48569
C          0.61101        1.04007       -0.13939
C          0.82755       -0.23781       -0.66139
H          0.00399       -0.80347       -1.08443
C          2.10089       -0.79465       -0.63195
H          2.27680       -1.78768       -1.02998
C          3.14477       -0.05701       -0.08191
C          2.94820        1.21729        0.44190
H          3.77654        1.77370        0.86552
C          1.67031        1.76091        0.41467
H          1.49148        2.75030        0.82228
Br         4.88234       -0.81005       -0.03954
