21
id_1878_cb.log	Energy: -648577.0626505
C          3.70187        1.14630       -0.56476
H          4.53225        0.54175       -0.93823
H          3.94737        1.50193        0.44120
H          3.57148        2.00859       -1.22460
C          2.43043        0.31320       -0.53296
C          2.63068       -0.90466        0.39299
O          2.21438       -0.82810        1.57673
O          3.24681       -1.87807       -0.12132
O          1.39305        1.17686       -0.07336
C          0.10843        0.71228       -0.09138
C         -0.86029        1.58672        0.41446
H         -0.55004        2.55625        0.79225
C         -2.19864        1.21760        0.43335
H         -2.94798        1.89695        0.82747
C         -2.56508       -0.03404       -0.05794
C         -1.61543       -0.91143       -0.56201
H         -1.91107       -1.88512       -0.93993
C         -0.26949       -0.54061       -0.58054
H          0.45743       -1.24147       -0.97632
Cl        -4.25272       -0.50680       -0.03554
H          2.18783       -0.04101       -1.54142
