30
id_1124_ca.log	Energy: -303954.2423499
C         -1.71178        1.22514        1.61896
H         -0.64463        1.40114        1.77262
H         -1.96981        0.24571        2.02459
H         -2.26369        1.98262        2.18208
C         -2.09184        1.38244        0.16031
H         -1.73853        2.34082       -0.22358
H         -3.16985        1.32535       -0.00112
N         -1.48141        0.32949       -0.75921
C         -2.34295       -0.90830       -0.93107
H         -3.14032       -0.58936       -1.60431
H         -1.71998       -1.63321       -1.45681
C         -2.94769       -1.48519        0.33452
H         -3.64428       -0.78758        0.80524
H         -2.20680       -1.79768        1.07190
H         -3.51767       -2.36882        0.03443
C         -0.04999        0.10103       -0.47074
C          0.82485        1.13574       -0.79246
H          0.44879        2.04369       -1.25679
C          2.17781        0.98938       -0.52087
H          2.86255        1.79300       -0.77693
C          2.67339       -0.17978        0.07005
C          1.77243       -1.20029        0.37208
H          2.13624       -2.11972        0.82126
C          0.40843       -1.07133        0.10839
H         -0.26004       -1.88925        0.34787
C          4.14151       -0.31835        0.37015
H          4.74483       -0.07282       -0.50896
H          4.38549       -1.33536        0.68578
H          4.43841        0.36720        1.17091
H         -1.49592        0.76487       -1.68962
