36
id_1666_ca.log	Energy: -678647.9744867
C          4.68606        2.31588        0.15344
H          5.00487        3.35311        0.05606
H          5.49075        1.65144       -0.17649
H          4.43544        2.10364        1.19765
O          3.54041        2.18073       -0.67992
C          2.92925        0.96921       -0.71219
C          1.78208        0.88562       -1.51209
H          1.45534        1.76766       -2.05281
C          1.08471       -0.30792       -1.59390
H          0.18678       -0.36643       -2.20505
C          1.51679       -1.43947       -0.88747
C          2.67020       -1.34669       -0.10790
H          3.01284       -2.21718        0.44602
C          3.37928       -0.15329       -0.00773
H          4.26822       -0.10883        0.60960
C          0.71929       -2.70459       -0.91736
H          1.33069       -3.59588       -0.77461
H          0.11831       -2.80275       -1.82229
N         -0.29517       -2.74989        0.24143
H          0.21514       -2.77561        1.13721
C         -1.22834       -1.63402        0.22768
C         -2.38365       -1.76389       -0.52759
H         -2.59486       -2.70727       -1.02160
C         -3.25781       -0.69012       -0.65317
H         -4.16954       -0.78127       -1.23033
C         -2.93153        0.50301       -0.02882
C         -1.77636        0.67631        0.71467
H         -1.53875        1.62109        1.18866
C         -0.93166       -0.41227        0.83830
N          0.28032       -0.22206        1.64233
O          0.76089        0.88940        1.68178
O          0.72977       -1.19263        2.23676
N         -3.84568        1.64550       -0.16104
O         -3.54979        2.67759        0.41214
O         -4.84605        1.49340       -0.83697
H         -0.82341       -3.63103        0.16349
