32
id_1356_cb.log	Energy: -281273.6052328
C          1.61441       -0.11337        1.46755
H          2.66216        0.17246        1.61396
H          1.49417       -1.12838        1.86039
H          1.00509        0.56092        2.07249
C          1.27626       -0.04883       -0.03542
C          1.23911        1.41692       -0.49614
H          2.15363        1.91037       -0.14642
H          1.26162        1.43247       -1.59462
C         -0.00000        2.16245       -0.02074
H         -0.00000        2.24979        1.07251
H         -0.00000        3.18445       -0.41528
C         -1.23911        1.41691       -0.49614
H         -1.26163        1.43247       -1.59462
H         -2.15364        1.91036       -0.14642
C         -1.27626       -0.04883       -0.03542
N          0.00000       -0.71161       -0.42681
C          0.00000       -2.14068       -0.13575
H          0.87437       -2.61427       -0.58540
H         -0.87436       -2.61427       -0.58542
H         -0.00001       -2.39337        0.93601
C         -2.43578       -0.72107       -0.78890
H         -3.31622       -0.07180       -0.74214
H         -2.71978       -1.68304       -0.35240
H         -2.17851       -0.87573       -1.84174
C         -1.61441       -0.11337        1.46755
H         -2.66216        0.17245        1.61395
H         -1.00510        0.56092        2.07249
H         -1.49417       -1.12838        1.86040
C          2.43578       -0.72106       -0.78890
H          3.31622       -0.07180       -0.74214
H          2.17851       -0.87573       -1.84174
H          2.71979       -1.68303       -0.35240
