26
id_171_cb.log	Energy: -372630.8760620
C         -4.45638       -0.08050        0.00929
H         -4.79687        0.87864       -0.39262
H         -5.06527       -0.31719        0.88857
H         -4.62938       -0.85642       -0.74456
C         -2.98134       -0.02241        0.37475
C         -2.13125        0.30258       -0.85962
H         -2.28608       -0.48917       -1.60235
H         -2.49691        1.24146       -1.29024
C         -0.66102        0.43071       -0.53983
C         -0.15828        1.62911       -0.02856
H         -0.83362        2.47186        0.09203
C          1.18993        1.78391        0.33147
H          1.57632        2.72075        0.71684
C          2.00225        0.68528        0.16269
C          1.51494       -0.51357       -0.34329
C          0.19647       -0.67609       -0.70508
H         -0.16751       -1.61697       -1.10553
O          2.55113       -1.41710       -0.44670
C          3.61787       -0.83559        0.30581
H          3.62272       -1.26248        1.31522
H          4.56049       -1.00188       -0.21262
O          3.35860        0.56669        0.38676
N         -2.57217       -1.32107        0.92339
H         -3.11742       -1.48853        1.76883
H         -1.60459       -1.24603        1.23804
H         -2.83383        0.79615        1.09832
