8
id_1890_ca.log	Energy: -268210.3339893
C          0.70888        0.07585        0.37804
H          0.87601        0.20250        1.44934
C         -0.76672       -0.16098        0.04764
O         -1.22137       -1.26120       -0.15474
O         -1.44575        0.97571        0.05899
H         -2.39307        0.80187       -0.11603
F          1.42583       -0.98314       -0.06884
F          1.15206        1.18207       -0.27798
