40
id_1363_cb.log	Energy: -493380.9312943
C          2.78806        2.24689       -0.51521
H          2.66384        1.84038       -1.52174
H          3.24867        1.46732        0.11746
H          3.48168        3.08994       -0.57847
N          1.51156        2.70390        0.02975
C          1.75698        3.24153        1.36491
H          0.82518        3.61679        1.79639
H          2.46851        4.06979        1.30557
H          2.17347        2.48105        2.04855
C          0.58342        1.57734        0.14028
H          1.07459        0.70666        0.60890
H         -0.23272        1.87557        0.80617
C         -0.00549        1.17853       -1.21761
H          0.79475        0.97933       -1.93525
H         -0.58310        2.01602       -1.62345
N         -0.82781       -0.02581       -1.17799
C         -0.15136       -1.26858       -1.55090
H         -0.89736       -2.06084       -1.58205
H          0.24975       -1.13677       -2.56148
C          0.97847       -1.62999       -0.61135
C          2.30541       -1.42070       -0.98807
H          2.52421       -1.05557       -1.98933
C          3.34601       -1.66029       -0.08934
H          4.37420       -1.48764       -0.39344
C          3.06386       -2.11501        1.19635
H          3.87077       -2.29873        1.89910
C          1.73927       -2.33920        1.57708
H          1.51551       -2.70107        2.57621
C          0.70428       -2.09817        0.67868
H         -0.32846       -2.26115        0.97613
C         -2.01592       -0.04302       -0.47947
C         -2.64651        1.16334       -0.08363
H         -2.19561        2.12547       -0.29113
C         -3.86385        1.09738        0.56530
H         -4.35676        2.01618        0.86949
C         -4.45315       -0.14386        0.82273
H         -5.40445       -0.23470        1.33325
C         -3.76329       -1.26585        0.39676
H         -4.17428       -2.25844        0.56953
N         -2.58226       -1.23690       -0.23311
