16
id_1104_ca.log	Energy: -238539.9677686
C         -1.85087       -1.25575       -0.00000
H         -2.55869       -2.07704       -0.00000
C         -2.30470        0.05950       -0.00000
H         -3.36845        0.26978       -0.00000
C         -1.40048        1.12201       -0.00000
H         -1.74526        2.15076        0.00000
C         -0.04773        0.84597       -0.00000
C          0.42650       -0.46957        0.00000
C         -0.48645       -1.52649        0.00000
H         -0.11667       -2.54549        0.00000
C          1.83738       -0.73026        0.00000
N          2.98040       -0.92118       -0.00000
N          0.91458        1.95091        0.00000
H          1.52526        1.93046       -0.83084
H          0.43177        2.86052       -0.00001
H          1.52525        1.93047        0.83084
