26
id_1809_cb.log	Energy: -598562.1218483
C          1.77197        1.84440       -0.95495
H          2.25437        2.29624       -1.82591
H          2.14380        2.34588       -0.05666
H          0.69468        2.01143       -1.03759
C          2.12197        0.36345       -0.92480
H          1.70007       -0.15755       -1.79144
C          3.62278        0.11373       -0.82219
H          3.85519       -0.95321       -0.80269
H          4.03015        0.58644        0.07658
H          4.10771        0.55921       -1.69471
S          1.32724       -0.43593        0.48791
O          1.71648        0.29609        1.70915
O          1.64603       -1.87571        0.42299
C         -0.40662       -0.24278        0.25488
C         -1.08391        0.79547        0.89777
H         -0.54826        1.46627        1.56235
C         -2.44313        0.95448        0.69259
H         -2.98193        1.75256        1.19448
C         -3.14388        0.08459       -0.16530
C         -2.44164       -0.95593       -0.80538
H         -2.97969       -1.63435       -1.46068
C         -1.08372       -1.11813       -0.59822
H         -0.55254       -1.93004       -1.08617
N         -4.48041        0.27900       -0.41527
H         -4.98859       -0.52475       -0.76481
H         -4.99098        0.80515        0.28407
