31
id_110_cb.log	Energy: -783019.6561879
C          6.24099       -0.44225       -0.13843
H          7.31059       -0.59135       -0.25255
C          5.41251       -0.40642       -1.26144
H          5.83568       -0.51865       -2.25550
C          4.03992       -0.21369       -1.12215
H          3.40103       -0.17047       -1.99754
C          3.48780       -0.06167        0.15389
C          4.31389       -0.07893        1.28066
H          3.87960        0.06132        2.26453
C          5.68564       -0.27448        1.13031
H          6.32128       -0.29368        2.01094
N          2.09352        0.18048        0.32925
C          1.16580       -0.50728       -0.34558
O          1.41531       -1.47219       -1.11052
C         -0.26432       -0.08902       -0.15857
C         -1.23484       -1.08326       -0.06961
H         -0.93619       -2.12837       -0.06630
C         -2.58595       -0.73866        0.02013
C         -2.99488        0.58512       -0.00620
H         -4.03985        0.86470        0.05667
C         -2.00132        1.55234       -0.12446
C         -0.65028        1.25290       -0.19144
H          0.08722        2.04149       -0.27529
N         -2.40828        2.95991       -0.17664
O         -3.59972        3.21764       -0.10242
O         -1.53899        3.80898       -0.29217
C         -3.59557       -1.84361        0.14434
F         -3.42629       -2.54948        1.28033
F         -4.85887       -1.39360        0.14751
F         -3.49408       -2.72827       -0.86692
O          1.75349        1.05657        1.32134
