35
id_1063_cb.log	Energy: -463683.1822309
C          3.89289       -1.45676       -0.38924
H          3.85619       -1.72123       -1.45203
H          3.62457       -2.34909        0.18716
H          4.92981       -1.19987       -0.14555
Si         2.73258       -0.02572       -0.00391
C          2.77711        0.36081        1.83879
H          3.79636        0.59437        2.16641
H          2.42332       -0.49108        2.43083
H          2.14605        1.22328        2.08112
C          3.24679        1.49415       -0.98672
H          3.25039        1.28540       -2.06242
H          4.25480        1.81941       -0.70581
H          2.56388        2.33186       -0.80981
C          0.96743       -0.53701       -0.46469
H          0.88887       -0.57386       -1.56049
H          0.77812       -1.56568       -0.11285
N         -0.00484        0.44594        0.03238
H          0.03972        0.44324        1.05327
C         -1.39830        0.16756       -0.33893
H         -1.43412        0.15122       -1.43904
C         -1.93997       -1.17263        0.17518
H         -1.33577       -2.00092       -0.21011
H         -1.84290       -1.18215        1.27178
C         -3.40782       -1.37640       -0.21048
H         -3.48562       -1.43366       -1.30522
H         -3.77156       -2.33192        0.18330
C         -4.27767       -0.22334        0.29103
H         -5.31940       -0.36814       -0.01619
H         -4.26455       -0.21404        1.38982
C         -3.74973        1.11482       -0.22793
H         -4.35429        1.94256        0.15880
H         -3.84238        1.13632       -1.32261
C         -2.28170        1.31425        0.15360
H         -2.19588        1.36860        1.24964
H         -1.90213        2.26123       -0.24560
