26
id_1398_ca.log	Energy: -432309.4887172
C          3.82798       -1.57061       -0.43272
H          3.40327       -2.21137       -1.21244
H          3.84088       -2.10533        0.52262
H          4.84227       -1.28108       -0.70607
O          3.09420       -0.35563       -0.32212
C          1.77457       -0.45631        0.01297
C          1.10527       -1.64732        0.25736
H          1.62818       -2.59464        0.18956
C         -0.25497       -1.63213        0.59607
H         -0.76862       -2.57127        0.78278
C         -0.94439       -0.43265        0.69389
C         -0.26870        0.77500        0.44888
H         -0.81184        1.71178        0.52924
C          1.07776        0.77012        0.11198
O          1.82056        1.88658       -0.13934
C          1.15880        3.14367       -0.04492
H          1.91454        3.89435       -0.27406
H          0.77288        3.30414        0.96704
H          0.34119        3.20816       -0.77046
C         -2.42286       -0.40021        1.02347
H         -2.65063        0.39255        1.73888
H         -2.73538       -1.36234        1.44008
C         -3.23199       -0.13668       -0.22112
O         -3.84099        0.89084       -0.45567
O         -3.19797       -1.16321       -1.08302
H         -3.71187       -0.93085       -1.88107
