24
id_1142_ca.log	Energy: -348280.1032487
C         -4.09974       -0.96463       -0.00002
H         -3.95024       -1.58140        0.88990
H         -3.95021       -1.58140       -0.88993
H         -5.12948       -0.59844       -0.00003
C         -3.15548        0.21230        0.00000
H         -3.27183        0.83704       -0.88870
H         -3.27184        0.83702        0.88871
O         -1.80942       -0.32408        0.00001
C         -0.82560        0.55661        0.00001
O         -1.01464        1.76556        0.00001
C          0.52590       -0.07704        0.00000
C          0.65222       -1.47002        0.00001
H         -0.24323       -2.07985        0.00002
C          1.90554       -2.06971        0.00001
H          1.98331       -3.15130        0.00001
C          3.05560       -1.28475       -0.00001
H          4.03643       -1.74755       -0.00001
C          2.95238        0.10311       -0.00001
H          3.83773        0.73135       -0.00002
C          1.69727        0.68813       -0.00001
N          1.63588        2.15473       -0.00000
H          2.10367        2.54531       -0.82879
H          0.64487        2.46493       -0.00002
H          2.10364        2.54531        0.82880
