19
id_1662_ca.log	Energy: -263205.9228998
C         -0.47371        1.21021       -0.26387
H         -1.01638        2.14807       -0.33875
C          0.90361        1.21830       -0.08797
H          1.45104        2.15212       -0.02210
C          1.58604        0.00000       -0.00176
C          0.90361       -1.21830       -0.08798
H          1.45103       -2.15212       -0.02211
C         -0.47371       -1.21020       -0.26387
H         -1.01639       -2.14807       -0.33876
C         -1.16573        0.00000       -0.35504
C         -2.65972        0.00001       -0.52662
H         -3.00822       -0.89127       -1.04767
H         -3.00822        0.89129       -1.04766
N         -3.33101       -0.00001        0.81573
H         -3.06609        0.82972        1.36020
H         -3.06609       -0.82974        1.36018
C          3.01302       -0.00000        0.17129
N          4.16409       -0.00000        0.30969
H         -4.35273       -0.00001        0.71367
