19
id_1024_cb.log	Energy: -1023890.7944640
C          1.30631       -0.21198        0.06599
H          1.40655        0.87878        0.04547
H          1.27439       -0.51952        1.11798
C          2.51535       -0.85594       -0.61210
H          2.56877       -0.52343       -1.65776
H          2.38410       -1.94547       -0.62967
C          3.83398       -0.52657        0.08639
H          4.64218       -1.07625       -0.40629
H          3.79508       -0.88586        1.12078
N          4.20501        0.89163        0.11620
H          3.48022        1.40261        0.61908
H          4.15897        1.24577       -0.83992
C          0.01678       -0.62165       -0.63864
H         -0.10232       -1.71022       -0.60845
H          0.04868       -0.31973       -1.69132
C         -1.25852       -0.02847       -0.05408
Cl        -1.48223       -0.52871        1.65028
Cl        -1.23272        1.76031       -0.12316
Cl        -2.67183       -0.60339       -0.99588
