19
id_1844_ca.log	Energy: -439291.0682241
C         -3.04554       -0.63269        0.26865
H         -4.07964       -0.83182        0.52602
C         -2.18110       -1.68268       -0.02834
H         -2.54060       -2.70550       -0.00517
C         -0.85249       -1.43603       -0.37030
H         -0.17539       -2.24264       -0.62543
C         -0.40304       -0.12527       -0.39517
C         -1.26787        0.92212       -0.10133
C         -2.59067        0.68331        0.22806
H         -3.24879        1.51814        0.44836
N         -0.75168        2.29013       -0.15360
H         -0.05741        2.46380        0.58812
H         -1.50998        2.97488       -0.03379
O          0.89478        0.21109       -0.78529
C          1.89633       -0.14223        0.06798
F          1.67993        0.31527        1.30112
F          2.04482       -1.46388        0.15170
F          3.01636        0.38160       -0.39793
H         -0.28836        2.48740       -1.05189
