25
id_1214_ca.log	Energy: -301842.4162770
C         -1.79791        1.84353       -0.47258
H         -1.78549        2.47119        0.42218
H         -2.59323        2.19852       -1.13312
H         -0.83767        1.94771       -0.98620
C         -2.05369        0.40568       -0.07363
C         -1.06146       -0.17753        0.93954
C          0.38020       -0.10928        0.47460
C          0.94947       -1.15118       -0.26245
H          0.36878       -2.04623       -0.47001
C          2.26416       -1.05385       -0.71687
H          2.69805       -1.86967       -1.28666
C          3.01900        0.08272       -0.43746
H          4.04305        0.15681       -0.78987
C          2.45802        1.12225        0.30425
H          3.04473        2.00622        0.53418
C          1.14670        1.02433        0.76031
H          0.71122        1.82950        1.34741
O         -1.50685       -1.50774        1.14888
H         -0.86883       -1.95838        1.72598
N         -2.03434       -0.46628       -1.29630
H         -1.15253       -0.36248       -1.81542
H         -2.80330       -0.22330       -1.93145
H         -3.05518        0.28859        0.34561
H         -1.17124        0.42183        1.85276
H         -2.13013       -1.45431       -1.02661
