21
id_1162_ca.log	Energy: -323620.4834450
C          3.50529       -0.62424        0.00001
H          3.77996       -0.06374        0.89480
H          3.77996       -0.06375       -0.89480
H          3.97593       -1.60477        0.00001
O          2.09060       -0.88195        0.00001
C          1.30822        0.18436       -0.00001
O          1.74458        1.32659       -0.00002
C         -0.14292       -0.16002       -0.00000
C         -0.55110       -1.49782       -0.00000
H          0.20064       -2.27793       -0.00000
C         -1.90036       -1.82910       -0.00000
H         -2.19718       -2.87199       -0.00000
C         -2.86589       -0.82586       -0.00000
H         -3.92061       -1.07841       -0.00000
C         -2.48109        0.51141        0.00000
H         -3.21862        1.30838        0.00000
C         -1.13336        0.82788        0.00000
N         -0.77807        2.25176        0.00001
H          0.25377        2.36062        0.00000
H         -1.16074        2.72623       -0.82874
H         -1.16073        2.72622        0.82877
