6
id_1895_cb.log	Energy: -189844.0527469
C          0.50345       -0.88451        0.00000
H          1.59864       -1.01870        0.00000
O         -0.25044       -1.83289        0.00000
C          0.00000        0.57676        0.00000
O         -1.23965        0.75193        0.00000
O          0.91267        1.43911        0.00000
