16
id_1989_cb.log	Energy: -449152.1729445
C         -0.00000        2.33391       -0.16439
H         -0.00001        3.41244       -0.26464
C         -1.19540        1.62703       -0.11098
H         -2.14460        2.14964       -0.16422
C         -1.20130        0.23978       -0.02073
C          0.00000       -0.57710        0.05938
C          1.20130        0.23979       -0.02074
C          1.19539        1.62704       -0.11099
H          2.14460        2.14965       -0.16423
N          2.49211       -0.39222        0.01216
O          2.60562       -1.56453       -0.33348
O          3.46490        0.27466        0.37472
O          0.00001       -1.81568        0.24671
N         -2.49211       -0.39222        0.01217
O         -2.60561       -1.56456       -0.33341
O         -3.46491        0.27467        0.37466
