30
id_1181_ca.log	Energy: -303963.8747144
C         -2.30826        2.02340        0.09613
H         -3.34031        1.86070       -0.22600
H         -1.70779        2.24317       -0.79407
H         -2.29212        2.91835        0.72393
C         -1.77593        0.83322        0.89125
H         -2.45242        0.62892        1.72853
H         -0.80399        1.07205        1.33772
C         -1.65746       -0.48910        0.13037
C         -1.25143       -1.61619        1.06796
H         -1.04933       -2.53906        0.51462
H         -2.08326       -1.80347        1.75218
H         -0.37178       -1.35248        1.66164
C         -2.92725       -0.84434       -0.63369
H         -2.83576       -1.83476       -1.09102
H         -3.14485       -0.11382       -1.41853
H         -3.76759       -0.86096        0.06570
N         -0.56467       -0.36114       -0.95668
H         -0.84560        0.38790       -1.60395
C          0.81575       -0.12945       -0.51820
C          1.63730       -1.22658       -0.29012
H          1.26090       -2.23344       -0.44620
C          2.94557       -1.00594        0.13122
H          3.59886       -1.85297        0.31123
C          3.41334        0.29433        0.31304
H          4.43472        0.46103        0.63912
C          2.57631        1.38101        0.06791
H          2.94149        2.39407        0.19832
C          1.26526        1.17457       -0.35372
H          0.60638        2.01338       -0.56071
H         -0.59404       -1.23027       -1.50855
