18
id_1794_cb.log	Energy: -436955.5959510
C         -1.20616        1.21006       -0.00512
H         -2.15543        1.73321       -0.00281
C         -0.00000        1.92875       -0.00758
C          1.20616        1.21007       -0.00512
H          2.15543        1.73321       -0.00280
C          1.16825       -0.17408       -0.00403
C          0.00000       -0.91933       -0.00390
H          0.00000       -1.99998       -0.00116
C         -1.16825       -0.17408       -0.00403
N         -2.44435       -0.90139        0.00181
O         -3.47579       -0.25216        0.00323
O         -2.40788       -2.11988        0.00482
N          2.44435       -0.90138        0.00181
O          3.47579       -0.25216        0.00325
O          2.40788       -2.11988        0.00479
N         -0.00000        3.30164       -0.06993
H          0.84537        3.75291        0.26041
H         -0.84536        3.75291        0.26045
