17
id_2320_ca.log	Energy: -309374.1190696
C         -1.82625        1.16334        0.00000
H         -2.68199        1.83357       -0.00000
C         -0.54782        1.65603        0.00000
H         -0.36177        2.72600        0.00001
C          0.56156        0.77277        0.00000
C          0.32709       -0.62946        0.00000
C         -0.99657       -1.12473        0.00000
H         -1.17135       -2.19635        0.00001
C         -2.04889       -0.23948        0.00000
O         -3.31947       -0.74212       -0.00001
H         -3.96621       -0.01559        0.00000
N          1.37147       -1.51277        0.00000
C          2.57492       -0.99210        0.00000
H          3.42134       -1.67344        0.00000
C          2.80664        0.40961       -0.00000
H          3.82522        0.78650       -0.00000
N          1.82660        1.28140       -0.00000
