17
id_2420_cb.log	Energy: -299017.0265043
C         -1.88079       -1.61686       -0.00000
H         -2.62731       -2.40849       -0.00000
C         -0.54074       -1.94324       -0.00000
H         -0.20203       -2.97556       -0.00000
C          0.41518       -0.89459        0.00000
C          1.81270       -1.15102        0.00000
H          2.15887       -2.18237        0.00000
C          2.69941       -0.10543        0.00000
H          3.77269       -0.26724        0.00000
C          2.18452        1.21218        0.00000
H          2.87077        2.05658        0.00000
N          0.89813        1.49655        0.00000
C          0.00000        0.47050        0.00000
C         -1.42288        0.81055       -0.00000
C         -2.31520       -0.27872       -0.00000
H         -3.38021       -0.05742       -0.00000
O         -1.82411        2.04229       -0.00000
