25
id_226_ca.log	Energy: -587794.1567905
C          2.98669        0.56289       -0.32707
H          3.78975        1.24944       -0.57979
C          2.42443        0.58002        0.95149
H          2.78847        1.28107        1.69768
C          1.39394       -0.30310        1.27327
H          0.95649       -0.28289        2.26995
C          0.90484       -1.21182        0.32751
C          1.48066       -1.22486       -0.94759
H          1.11069       -1.92748       -1.69096
C          2.51331       -0.34514       -1.27555
H          2.94601       -0.36710       -2.27198
C         -0.23811       -2.13233        0.68052
H         -0.03215       -2.62759        1.63768
H         -0.33059       -2.91929       -0.07597
C         -1.58107       -1.40902        0.83063
H         -1.50621       -0.59944        1.56407
H         -2.33991       -2.11013        1.18696
S         -2.18250       -0.69180       -0.74704
C         -2.31525        1.07014       -0.30605
H         -2.71055        1.57395       -1.19324
H         -3.00893        1.20668        0.52452
C         -0.99522        1.69108        0.06683
O         -0.73910        2.11618        1.17866
O         -0.12578        1.73868       -0.94578
H          0.73073        2.08556       -0.62324
