34
id_271_ca.log	Energy: -562581.4270949
C         -4.06643       -1.83264        0.95833
H         -3.14903       -2.43028        1.00435
H         -4.91745       -2.51653        0.91063
H         -4.15813       -1.24497        1.87437
C         -4.07369       -0.96813       -0.28969
H         -4.90266       -0.25615       -0.26703
C         -4.10625       -1.78530       -1.56916
H         -4.07058       -1.14136       -2.45303
H         -5.03273       -2.36314       -1.59993
H         -3.26233       -2.48253       -1.60117
N         -2.82716       -0.11107       -0.32566
H         -2.00643       -0.73324       -0.35850
C         -2.68595        0.85213        0.80688
H         -3.62227        1.40877        0.87030
H         -2.55035        0.27539        1.72057
C         -1.53381        1.83390        0.59250
C         -0.18144        1.16261        0.39052
C          0.16345        0.00759        1.10230
H         -0.53443       -0.44033        1.80374
C          1.40867       -0.58539        0.92890
H          1.66471       -1.48369        1.48114
C          2.32057       -0.02321        0.03921
C          1.99590        1.12861       -0.67045
H          2.70952        1.56510       -1.36169
C          0.74845        1.71746       -0.49233
H          0.50443        2.61955       -1.04255
C          3.68150       -0.63223       -0.11321
F          3.66618       -1.95854        0.09168
F          4.56289       -0.11902        0.76434
F          4.19356       -0.42290       -1.33600
O         -1.84198        2.75753       -0.43544
H         -1.65306        2.35512       -1.29951
H         -1.48987        2.42830        1.51192
H         -2.83289        0.40885       -1.21332
