40
id_2330_ca.log	Energy: -638484.5161641
C          1.95072        2.26040        0.65093
H          1.06401        2.40705        0.02561
H          2.42219        3.23437        0.80184
H          1.63392        1.87557        1.62482
C          2.95834        1.32470        0.00967
H          3.81527        1.17109        0.66626
H          3.31897        1.68796       -0.95581
N          2.35141       -0.02850       -0.24874
C          3.39228       -1.11172       -0.33854
H          2.92681       -1.96128       -0.84137
H          4.18693       -0.72051       -0.97872
C          3.88684       -1.51374        1.03639
H          4.38720       -0.69333        1.55626
H          4.60392       -2.33046        0.92526
H          3.05495       -1.86905        1.65256
C          1.47743        0.00094       -1.47512
H          1.08885        1.01476       -1.58526
H          2.12462       -0.21472       -2.32723
C          0.32806       -0.99828       -1.39015
H          0.68063       -2.02548       -1.25175
H         -0.23801       -0.96098       -2.32530
P         -0.77526       -0.59494       -0.02976
O         -0.08474       -0.49668        1.29729
O         -1.90003       -1.71996       -0.12845
C         -3.08695       -1.60751        0.71008
H         -3.30685       -2.62609        1.03146
H         -2.84844       -1.01200        1.59730
C         -4.22767       -1.01330       -0.08425
H         -5.12670       -0.98568        0.53804
H         -4.43453       -1.62461       -0.96670
H         -3.99592        0.00569       -0.40755
O         -1.44828        0.78716       -0.47844
C         -1.84084        1.77886        0.50802
H         -2.70905        1.39746        1.05441
H         -1.01417        1.92196        1.20809
C         -2.16957        3.04787       -0.23968
H         -1.29533        3.40671       -0.79070
H         -2.47572        3.82031        0.47082
H         -2.98780        2.87910       -0.94524
H          1.74581       -0.24770        0.56320
