34
id_2194_cb.log	Energy: -597519.0311292
C         -4.26060       -1.13990        0.06125
H         -4.14850       -1.96698       -0.64846
H         -5.18376       -0.60569       -0.18955
H         -4.38566       -1.57063        1.06102
Si        -2.77515        0.01320        0.00065
C         -3.01405        1.43264        1.21211
H         -3.16774        1.05951        2.23083
H         -3.88669        2.03768        0.94180
H         -2.13992        2.09262        1.22514
C         -2.55007        0.69354       -1.74117
H         -1.71912        1.40701       -1.78730
H         -3.45252        1.21612       -2.07769
H         -2.34286       -0.10992       -2.45727
C         -1.22074       -0.97121        0.45902
H         -1.25336       -1.20540        1.53239
H         -1.21653       -1.94790       -0.06168
N         -0.00000       -0.20086        0.19236
H         -0.00001        0.04271       -0.79797
C          1.22074       -0.97121        0.45900
H          1.21653       -1.94790       -0.06172
H          1.25336       -1.20544        1.53236
Si         2.77515        0.01321        0.00066
C          4.26060       -1.13989        0.06120
H          4.14850       -1.96695       -0.64854
H          4.38568       -1.57066        1.06095
H          5.18375       -0.60566       -0.18958
C          2.55009        0.69358       -1.74115
H          3.45257        1.21612       -2.07766
H          1.71916        1.40707       -1.78730
H          2.34287       -0.10988       -2.45726
C          3.01404        1.43260        1.21217
H          2.13992        2.09258        1.22522
H          3.88669        2.03764        0.94192
H          3.16771        1.05940        2.23088
