25
id_2426_cb.log	Energy: -359429.3941655
C          2.87303        0.34910        0.37397
H          3.92637        0.39503        0.63125
C          2.09018        1.48976        0.39215
H          2.51250        2.45217        0.66381
C          0.73950        1.36170        0.05029
C          0.17580        0.11395       -0.30803
C          0.98794       -1.03571       -0.32067
H          0.58595       -2.00988       -0.59085
C          2.32187       -0.90129        0.01940
O          3.18869       -1.97459        0.03291
H          2.70099       -2.76978       -0.23742
C         -1.21374        0.34228       -0.60515
C         -1.42759        1.68331       -0.40562
H         -2.33771        2.25640       -0.52274
N         -0.26343        2.30153       -0.01808
H         -0.15894        3.28807        0.17522
C         -2.22656       -0.69989       -0.96804
H         -1.80594       -1.39002       -1.71077
H         -3.10064       -0.22294       -1.42872
C         -2.69305       -1.50417        0.25431
H         -1.82685       -1.99338        0.71382
H         -3.37116       -2.29793       -0.07342
N         -3.37330       -0.71529        1.28324
H         -4.18226       -0.27431        0.84309
H         -2.75892        0.06524        1.52167
