37
id_2307_ca.log	Energy: -481505.2941518
C         -4.56207       -0.00266        1.05522
H         -5.53412        0.07148        1.52943
C         -3.79384        1.10779        0.82095
H         -4.13367        2.10066        1.10196
C         -2.52845        0.95750        0.19818
C         -1.65808        2.03952       -0.09763
H         -1.96274        3.05006        0.15518
C         -0.45574        1.79354       -0.70625
H          0.20893        2.61841       -0.94969
C         -0.03566        0.47780       -1.04659
C         -0.87857       -0.58003       -0.77573
C         -2.14090       -0.35796       -0.14442
N         -2.90666       -1.45811        0.08753
C         -4.07286       -1.27329        0.66734
H         -4.67526       -2.15966        0.84824
O         -0.53629       -1.84745       -1.10218
H         -1.28376       -2.41765       -0.82657
C          1.27423        0.25398       -1.74444
H          1.54211        1.12258       -2.34980
H          1.24350       -0.63114       -2.38224
N          2.43684        0.04288       -0.80205
C          2.69081        1.22773        0.08777
H          2.73436        2.10667       -0.55843
H          1.82508        1.30715        0.75078
C          3.97495        1.02408        0.87629
H          4.82226        0.98538        0.18036
H          4.11647        1.89932        1.51631
C          3.91229       -0.26105        1.70054
H          4.85867       -0.42123        2.22424
H          3.12600       -0.16765        2.45994
C          3.60293       -1.45116        0.79352
H          3.47610       -2.36922        1.37394
H          4.43295       -1.61686        0.09528
C          2.32561       -1.22341       -0.00033
H          1.46023       -1.09656        0.65621
H          2.12931       -2.03049       -0.70743
H          3.26467       -0.05939       -1.40516
