29
id_2282_cb.log	Energy: -337645.2730754
C         -3.10917        0.14315        1.37228
H         -3.47779        0.24267        2.38859
C         -3.86809        0.58868        0.29241
H         -4.84032        1.04801        0.43279
C         -3.34646        0.42741       -0.98430
H         -3.91137        0.76133       -1.85101
N         -2.15311       -0.12634       -1.23894
C         -1.42754       -0.55222       -0.19639
C         -1.87294       -0.43707        1.12378
H         -1.25472       -0.80430        1.93616
C         -0.09020       -1.18556       -0.49900
H          0.02851       -1.22987       -1.59520
H         -0.09178       -2.21680       -0.12660
N          1.03064       -0.48668        0.12969
C          2.26011       -1.24311       -0.13221
H          2.13123       -2.25439        0.26777
H          2.42171       -1.34173       -1.22348
C          3.47688       -0.57268        0.49434
H          3.35471       -0.55497        1.58441
H          4.36854       -1.16871        0.27347
C          3.62977        0.85454       -0.02922
H          4.46361        1.36372        0.46501
H          3.85953        0.82030       -1.10290
C          2.32485        1.62126        0.17802
H          2.38053        2.61817       -0.27155
H          2.14236        1.75522        1.25151
C          1.15250        0.86286       -0.43367
H          1.28511        0.80512       -1.53206
H          0.21915        1.40387       -0.24829
