19
id_402_cb.log	Energy: -289067.9299030
C         -4.02800        0.01809       -0.00001
H         -4.20134        0.63147       -0.88959
H         -4.20134        0.63146        0.88958
H         -4.75110       -0.80293       -0.00002
C         -2.62217       -0.54051       -0.00001
H         -2.44559       -1.15897       -0.88957
H         -2.44559       -1.15898        0.88954
O         -1.71789        0.56037       -0.00000
C         -0.36284        0.26644       -0.00000
C          0.50855        1.35987        0.00001
H          0.09046        2.36424        0.00001
C          1.88519        1.17049        0.00001
H          2.54628        2.03498        0.00002
C          2.47040       -0.12630        0.00001
C          1.55638       -1.20771       -0.00000
H          1.95475       -2.22046       -0.00000
C          0.16939       -1.02266       -0.00000
H         -0.47704       -1.89479       -0.00001
O          3.77652       -0.30191        0.00001
