55
id_456_ca.log	Energy: -1191528.3306538
C         -1.80334       -0.09322       -2.04422
H         -1.45667        0.92455       -2.24351
H         -2.29319       -0.47392       -2.94786
H         -0.92617       -0.71649       -1.84247
C         -2.81077       -0.08461       -0.89190
C         -3.23287       -1.56186       -0.56800
N         -2.26942       -2.08167        0.39037
C         -1.69486       -1.11948        1.35551
S         -2.01183        0.53791        0.67366
C         -0.30465       -1.79839        1.15315
C         -1.01563       -2.57264        0.03210
O         -0.67534       -3.28565       -0.88029
N          0.79487       -0.98539        0.74969
H          0.65118       -0.34975       -0.03249
C          1.93373       -0.85994        1.46781
O          2.20351       -1.54974        2.44951
C          2.93473        0.18921        0.95213
C          3.91377       -0.47399        0.00252
C          3.53898       -0.81834       -1.30147
H          2.53575       -0.60390       -1.66771
C          4.45015       -1.44788       -2.14745
H          4.15280       -1.70848       -3.15886
C          5.73694       -1.74572       -1.69604
H          6.44507       -2.23663       -2.35715
C          6.11060       -1.40996       -0.39542
H          7.11102       -1.63603       -0.03834
C          5.20162       -0.77382        0.45034
H          5.49318       -0.50429        1.46226
N          2.27634        1.31895        0.32106
H          2.20611        1.35998       -0.69422
C          1.37000        2.02714        1.04109
O          1.27632        1.92968        2.26831
N          0.55349        2.90473        0.34125
C         -0.44606        3.71119        1.05704
H          0.02420        4.61502        1.44912
H         -0.86810        3.14068        1.88488
C         -1.49209        4.02668       -0.02653
H         -2.41590        3.45939        0.12082
H         -1.73240        5.08926       -0.05695
N         -0.82237        3.60778       -1.25526
H         -1.33705        3.46263       -2.11765
C          0.24786        2.81813       -1.02051
O          0.87455        2.16135       -1.85553
C         -4.67281       -1.71123       -0.08887
O         -5.61059       -1.55153       -0.83950
O         -4.89069       -2.02871        1.18958
H         -4.06250       -2.23217        1.66389
C         -3.96049        0.86104       -1.23292
H         -4.69750        0.92982       -0.42873
H         -3.55809        1.86288       -1.41993
H         -4.45972        0.52330       -2.14633
H         -3.16331       -2.15529       -1.48531
H         -2.10045       -1.18751        2.36529
H         -0.01277       -2.42764        1.99598
H          3.47262        0.52999        1.83996
