42
id_472_ca.log	Energy: -660414.6296872
C         -6.46651       -1.07921       -0.38650
H         -5.93707       -1.39445       -1.28915
H         -7.53661       -1.03893       -0.60889
H         -6.30386       -1.82253        0.39873
C         -5.99219        0.28470        0.06892
H         -6.50764        0.60303        0.97582
H         -6.12935        1.04268       -0.70427
O         -4.60159        0.25023        0.44814
C         -3.71251        0.28259       -0.56172
O         -4.03624        0.41957       -1.73660
N         -2.43206        0.12358       -0.13339
C         -2.06179        0.25085        1.27595
H         -1.87129        1.30781        1.51121
H         -2.89279       -0.07573        1.89722
C         -0.84320       -0.61301        1.59482
H         -1.12034       -1.66845        1.50221
H         -0.52390       -0.43227        2.62480
C          0.32825       -0.37889        0.64529
C         -0.15721       -0.49515       -0.80664
H          0.65624       -0.24292       -1.49474
H         -0.43811       -1.54030       -0.97643
C         -1.35342        0.40756       -1.07922
H         -1.72554        0.23969       -2.08823
H         -1.06297        1.46471       -0.99669
N          1.39006       -1.32820        0.94919
H          1.07385       -2.29466        0.92842
C          2.61043       -1.11848        0.34640
C          3.47842       -2.18215        0.05975
H          3.15974       -3.19490        0.28306
C          4.71172       -1.93180       -0.51462
H          5.36997       -2.76352       -0.74323
C          5.12662       -0.63060       -0.82246
H          6.08283       -0.41829       -1.28476
C          4.27257        0.40204       -0.51771
C          3.01393        0.20818        0.06951
C          2.12979        1.28468        0.49834
N          0.90575        0.95252        0.89279
N          2.52155        2.54392        0.56308
H          1.88409        3.26513        0.88586
H          3.47885        2.80422        0.36713
F          4.66121        1.65739       -0.80211
H          0.28920        1.69403        1.21629
