8
id_4_cb.log	Energy: -159195.2955450
C          0.75272        0.47745       -0.27952
H          1.20978        1.45686       -0.02097
H          0.64549        0.48310       -1.38471
C         -0.64853        0.54232        0.28997
H         -1.18832        1.43633       -0.03876
H         -0.63968        0.48327        1.38305
F         -1.40208       -0.56827       -0.15914
O          1.49578       -0.60798        0.17887
