34
id_481_ca.log	Energy: -734789.1660701
C          2.73585        2.11423        0.27579
H          3.37014        2.95969        0.51799
C          3.26618        0.83094        0.13127
H          4.32369        0.64068        0.26075
C          2.38402       -0.18463       -0.17925
N          1.06610       -0.03111       -0.35209
C          0.56973        1.17799       -0.20285
C          1.37092        2.29924        0.11178
C          0.76124        3.58586        0.25850
N          0.26861        4.62789        0.37756
O         -0.74680        1.40122       -0.34846
C         -1.59895        0.26715       -0.59111
C         -2.91732        0.86632       -1.07727
H         -3.25273        1.60510       -0.34318
H         -2.73325        1.38943       -2.02059
C         -4.04045       -0.14074       -1.24331
H         -4.95137        0.36477       -1.56060
H         -4.24454       -0.69420       -0.32552
N         -3.73002       -1.15724       -2.29942
H         -3.47726       -0.70374       -3.18584
H         -4.54500       -1.75579       -2.47595
C         -1.76449       -0.53770        0.65965
C         -1.39308       -1.78982        1.02313
H         -0.81228       -2.50154        0.45680
C         -1.92593       -1.91903        2.33491
H         -1.86502       -2.76291        3.00868
N         -2.55623       -0.84011        2.71757
O         -2.46267        0.04064        1.65899
C          2.85147       -1.60893       -0.36048
F          2.69451       -2.01018       -1.62875
F          2.14382       -2.44720        0.40773
F          4.14140       -1.75352       -0.04478
H         -1.13586       -0.36913       -1.34886
H         -2.95284       -1.77043       -2.02540
