28
id_50_ca.log	Energy: -441489.0700318
C          3.01878       -1.15135        1.08149
H          3.78757       -1.36087        1.81612
C          2.60123       -2.14716        0.18799
H          3.05528       -3.13221        0.23022
C          1.60277       -1.90441       -0.74022
H          1.26877       -2.68208       -1.42012
C          0.99636       -0.64339       -0.79840
C          1.43681        0.37050        0.07685
C          2.43929        0.10257        1.02078
H          2.75175        0.87059        1.72139
C          0.85715        1.69984       -0.09448
N         -0.22437        1.81697       -0.85786
C         -0.96399        0.64014       -1.28832
N          0.01057       -0.34686       -1.72801
H         -0.42299       -1.16506       -2.14845
C         -1.85079        0.15319       -0.17758
C         -2.00803        0.48571        1.12902
H         -1.48656        1.26889        1.66198
C         -3.00611       -0.40749        1.64822
H         -3.39360       -0.44056        2.65610
C         -3.37160       -1.20895        0.61880
H         -4.07579       -2.02060        0.51507
O         -2.67565       -0.88029       -0.50877
N          1.40429        2.77256        0.44175
H          0.98180        3.68750        0.31857
H          2.31249        2.72994        0.88719
H         -1.56939        0.92237       -2.15020
H         -0.64880        2.73054       -0.99378
