51
id_557_cb.log	Energy: -1506179.3002253
C          3.59696       -1.67018        0.43055
H          3.04522       -2.58813        0.60633
C          4.93511       -1.70822        0.07633
H          5.44425       -2.66079       -0.03045
C          5.64068       -0.52512       -0.14840
C          4.98239        0.69315       -0.00962
C          3.63466        0.74819        0.34676
H          3.16276        1.71865        0.44278
C          2.93890       -0.44120        0.56870
O          1.63268       -0.50961        0.94329
C          0.83243        0.68425        0.96815
H          1.38952        1.47674        1.48539
C          0.45349        1.12600       -0.44002
H         -0.00844        0.27631       -0.95747
H          1.33423        1.43363       -1.01322
C         -0.53369        2.28627       -0.36617
H         -0.83613        2.58006       -1.37678
H         -0.03968        3.16441        0.09500
N         -1.72823        1.92306        0.39641
C         -1.37229        1.54416        1.76243
H         -2.29053        1.27841        2.29825
H         -0.90986        2.39547        2.30001
C         -0.41614        0.35482        1.76904
H         -0.90855       -0.51665        1.31685
H         -0.14594        0.10108        2.79976
C         -2.70711        3.01039        0.36390
H         -2.20322        3.99096        0.30228
H         -3.28209        3.01163        1.29848
C         -3.66615        2.86877       -0.82471
C         -4.91234        2.04895       -0.47417
H         -5.55653        2.66721        0.15802
H         -5.46569        1.80150       -1.38300
N         -4.62726        0.83020        0.26397
H         -4.46544        0.94717        1.25841
C         -4.00763       -0.22140       -0.33143
O         -3.92024       -0.30256       -1.57031
C         -3.47747       -1.25745        0.55986
C         -3.57181       -1.36712        1.95634
H         -4.11143       -0.73696        2.65448
N         -2.88666       -2.42899        2.39695
N         -2.31846       -3.04080        1.33203
C         -2.66155       -2.35943        0.23555
C         -2.15893       -2.80418       -1.09230
F         -1.35151       -3.87793       -0.99413
F         -3.14803       -3.16051       -1.94445
F         -1.44050       -1.85320       -1.73045
O         -4.17722        4.13629       -1.23860
H         -3.44453        4.65657       -1.60659
Cl         5.81835        2.19598       -0.27758
Cl         7.31978       -0.60850       -0.59732
H         -3.13036        2.39942       -1.65923
