27
id_579_ca.log	Energy: -372944.5713249
C         -1.24336        1.37554       -0.03707
H         -1.39048        2.45329       -0.06679
C          0.05387        0.84518       -0.01510
C          0.21977       -0.54216        0.02354
C         -0.90751       -1.37435        0.03746
H         -0.79261       -2.45472        0.06542
C         -2.18484       -0.84317        0.01687
C         -2.35340        0.54939       -0.02074
O         -3.65216        0.99084       -0.03688
H         -3.66802        1.96192       -0.07238
O         -3.27439       -1.67509        0.03290
H         -4.07688       -1.12518        0.01499
C          1.59299       -1.17868        0.08468
H          1.61997       -2.07888       -0.53853
H          1.80384       -1.49461        1.11605
C          2.67664       -0.20542       -0.35235
C          2.54125        1.12599        0.36601
H          2.53726        0.94376        1.44816
H          3.39171        1.77468        0.13347
C          1.23662        1.78986       -0.07022
H          1.35230        2.16088       -1.09674
H          1.03921        2.66568        0.55527
N          4.01635       -0.80839       -0.05216
H          4.77733       -0.19362       -0.36412
H          4.13006       -1.71583       -0.51947
H          2.65374       -0.05743       -1.43521
H          4.12826       -0.96045        0.95835
