12
id_74_cb.log	Energy: -168773.0190907
C         -2.19050       -0.18624        0.07546
H         -2.77901       -0.96299       -0.41739
H         -2.58566        0.80018       -0.20332
H         -2.27028       -0.30595        1.16432
O         -0.84850       -0.32974       -0.34978
C          0.00239        0.64509        0.24157
H         -0.34785        1.65090       -0.04297
H         -0.05519        0.55466        1.33851
C          1.43392        0.42632       -0.22484
H          2.00068        1.30907        0.13933
H          1.42360        0.51709       -1.33218
O          1.99085       -0.77951        0.19984
