28
id_889_cb.log	Energy: -410118.7328221
C         -1.82238        1.20659        0.19293
H         -2.44198        2.08890        0.32174
C         -0.43290        1.32366        0.22154
H          0.02255        2.29926        0.37314
C          0.38532        0.20111        0.05906
C         -0.22844       -1.04583       -0.13132
H          0.39194       -1.92991       -0.26496
C         -1.61417       -1.16435       -0.15915
H         -2.07216       -2.13703       -0.31168
C         -2.42915       -0.03738        0.00371
C         -3.94243       -0.16254       -0.02185
O         -4.43385       -1.31655       -0.17505
O         -4.61754        0.89610        0.11593
C          1.87594        0.29756        0.11157
C          2.59808       -0.41909        1.25400
H          2.51609        0.11951        2.20538
H          2.13956       -1.40679        1.38938
C          4.05453       -0.56762        0.78038
H          4.63235        0.32146        1.05190
H          4.55187       -1.42812        1.23669
C          3.95864       -0.68947       -0.75208
H          3.78366       -1.73322       -1.04096
H          4.87428       -0.35485       -1.25271
C          2.73804        0.13619       -1.12184
C          2.58395        1.48885       -0.47205
H          1.97072        2.21297       -1.00072
H          3.42597        1.91819        0.06563
H          2.26613       -0.01290       -2.08936
