20
id_82_ca.log	Energy: -947179.9330929
C         -0.01386       -2.28875        0.03297
H         -0.50633       -3.25647        0.05695
C          1.35452       -2.20729        0.02430
H          1.96967       -3.10073        0.04203
C          1.97294       -0.93531       -0.00723
C          1.24064        0.22436       -0.03134
C         -0.17891        0.15628       -0.02319
C         -0.80828       -1.11289        0.01066
C         -2.22477       -1.15172        0.01865
H         -2.74319       -2.10608        0.04367
C         -2.89847        0.03723       -0.00688
C         -2.18677        1.26373       -0.04227
H         -2.73553        2.20183       -0.06417
N         -0.87671        1.32798       -0.05075
Cl        -4.63642        0.08944        0.00161
C          1.89729        1.57070       -0.08998
O          2.25129        2.10044       -1.12159
O          2.05237        2.11012        1.11839
H          2.48147        2.98637        1.03476
Cl         3.71381       -0.85669       -0.00435
