36
id_948_cb.log	Energy: -316732.7493484
C          2.42619        2.38395       -0.41215
H          1.41792        2.78691       -0.54935
H          3.09924        2.94889       -1.06423
H          2.72481        2.56248        0.62520
C          2.50595        0.90014       -0.74198
H          3.53696        0.56895       -0.58990
H          2.27858        0.73443       -1.81072
N          1.63015        0.07109        0.09765
C          2.05672       -1.33365        0.01968
H          1.22969       -1.95935        0.36903
H          2.23857       -1.61785       -1.03303
C          3.28284       -1.64558        0.86579
H          4.16068       -1.07165        0.55502
H          3.53450       -2.70691        0.77873
H          3.08744       -1.42568        1.91963
C          0.24313        0.18076       -0.37340
H          0.06546        1.21029       -0.69818
H          0.08818       -0.45902       -1.26125
C         -0.75860       -0.16314        0.73031
H         -0.62471        0.55087        1.54859
H         -0.53015       -1.14619        1.15230
N         -2.17271       -0.15746        0.34439
C         -2.61788        1.14988       -0.15097
H         -2.17447        1.37899       -1.13644
H         -3.69896        1.07442       -0.31682
C         -2.34055        2.30327        0.80158
H         -1.27315        2.53724        0.86627
H         -2.70496        2.07737        1.80884
H         -2.85440        3.20135        0.44679
C         -2.49342       -1.16590       -0.67283
H         -3.58385       -1.16351       -0.78761
H         -2.08383       -0.88819       -1.65985
C         -2.03276       -2.57250       -0.32218
H         -2.35615       -2.85384        0.68523
H         -0.94383       -2.67362       -0.37532
H         -2.46547       -3.28516       -1.03026
