45
id_929_cb.log	Energy: -557441.4853639
C         -5.64702       -0.06647       -0.00922
H         -5.54133        0.55971        0.88168
H         -5.53087        0.56083       -0.89804
H         -6.65536       -0.49079       -0.01541
C         -4.63153       -1.18576       -0.00403
H         -4.72020       -1.81615       -0.89342
H         -4.73014       -1.81697        0.88372
O         -3.32587       -0.57846        0.00329
C         -2.26531       -1.41239        0.00640
O         -2.42059       -2.63481        0.00621
C         -0.97688       -0.73066        0.00832
C          0.20037       -1.49834        0.00504
H          0.09009       -2.57770        0.00342
C          1.46015       -0.92718        0.00282
C          1.58181        0.52425        0.00313
C          0.35945        1.31596        0.00765
C         -0.86521        0.67107        0.01006
H         -1.78032        1.25180        0.01310
C          0.43419        2.85102        0.00049
C         -0.95854        3.49605        0.04351
H         -0.84477        4.58597        0.04237
H         -1.56605        3.22507       -0.82754
H         -1.51164        3.21961        0.94878
C          1.19756        3.36815        1.23376
H          1.20914        4.46539        1.22950
H          0.70017        3.04193        2.15551
H          2.22920        3.01339        1.25439
C          1.11328        3.35001       -1.28831
H          2.12984        2.96510       -1.39193
H          1.15945        4.44643       -1.28555
H          0.53578        3.04049       -2.16789
O          2.73271        1.08793       -0.00065
C          2.72034       -1.80618       -0.00210
C          2.37777       -3.30272       -0.00423
H          1.80728       -3.59561        0.88482
H          3.30899       -3.88047       -0.00719
H          1.80381       -3.59213       -0.89221
C          3.56623       -1.54683        1.25802
H          4.45786       -2.18639        1.24648
H          3.88991       -0.50653        1.32558
H          2.99100       -1.78950        2.15995
C          3.56029       -1.54240       -1.26536
H          2.97949       -1.77816       -2.16556
H          3.88722       -0.50292       -1.32894
H          4.44976       -2.18503       -1.26205
