11
id_937_ca.log	Energy:  -85063.9228601
C          1.24117       -0.27673        0.00000
H          1.23688       -0.89723       -0.89503
H          1.23685       -0.89732        0.89497
H          2.10086        0.39101        0.00003
N          0.00000        0.54461        0.00000
H          0.00000        1.15778       -0.82229
C         -1.24117       -0.27673        0.00000
H         -1.23685       -0.89732        0.89497
H         -1.23688       -0.89723       -0.89503
H         -2.10086        0.39101        0.00003
H          0.00000        1.15776        0.82231
