15
id_974_cb.log	Energy: -321563.6728240
C         -1.27548       -1.76762        0.00000
H         -1.76271       -2.73740        0.00000
C         -2.04408       -0.60866        0.00000
H         -3.12846       -0.65515        0.00000
C         -1.39605        0.63316        0.00000
C         -0.00000        0.72171        0.00000
H          0.48306        1.69318       -0.00000
C          0.76320       -0.44464       -0.00000
C          0.11676       -1.68465       -0.00000
H          0.71224       -2.59190       -0.00000
C          2.28486       -0.36352       -0.00000
O          2.91806       -1.45305       -0.00000
O          2.80207        0.78621       -0.00000
C         -2.17917        1.83872        0.00000
N         -2.81221        2.81128        0.00000
